ITEM: TIMESTEP
455
ITEM: NUMBER OF ATOMS
25762
ITEM: BOX BOUNDS pp pp pp
1.1838916366880607e+01 2.2974932187311876e+02
1.1018923755549695e+01 2.2758718848445028e+02
1.9532669731534033e-01 4.0226733026846579e+00
ITEM: ATOMS id type element xu yu zu c_peratom c_virial[1] c_virial[2] c_virial[3] c_virial[4] c_virial[5] c_virial[6] v_ptrace 
1 1 Mg 11.8501 11.0184 0.195327 -14.3113 -6.1371e+06 -6.00648e+06 -6.0703e+06 -42.0406 0.0644601 -0.263676 6.07129e+06 
2 1 Mg 13.1969 12.3792 2.109 -14.3113 -6.13676e+06 -6.00661e+06 -6.07029e+06 -324.771 0.572794 -0.374164 6.07122e+06 
3 2 O 13.1969 12.3792 0.195327 -14.5293 -8.05738e+06 -7.72741e+06 -7.93014e+06 -364.321 0.360456 -0.205265 7.90498e+06 
4 2 O 11.8501 11.0184 2.109 -14.5293 -8.05805e+06 -7.72727e+06 -7.93028e+06 -68.2642 0.22264 -0.471623 7.9052e+06 
5 1 Mg 14.5438 11.0183 0.195327 -14.3112 -6.13659e+06 -6.00656e+06 -6.0703e+06 -46.0989 0.0239312 -0.461862 6.07115e+06 
6 1 Mg 15.8907 12.3792 2.109 -14.3112 -6.13647e+06 -6.00663e+06 -6.0704e+06 187.628 0.111146 -0.135793 6.07117e+06 
7 2 O 15.8907 12.3792 0.195327 -14.5294 -8.05742e+06 -7.72732e+06 -7.92994e+06 99.1394 0.393549 -0.276322 7.90489e+06 
8 2 O 14.5438 11.0183 2.109 -14.5294 -8.05729e+06 -7.72722e+06 -7.93001e+06 -66.8486 0.57229 -0.363315 7.90484e+06 
9 1 Mg 17.2375 11.0183 0.195327 -14.3112 -6.13684e+06 -6.00651e+06 -6.07038e+06 -37.4666 -0.342676 -0.892887 6.07124e+06 
10 1 Mg 18.5844 12.3792 2.109 -14.3113 -6.13761e+06 -6.00651e+06 -6.07033e+06 594.566 0.0326477 -0.684411 6.07148e+06 
11 2 O 18.5844 12.3792 0.195327 -14.5292 -8.05835e+06 -7.72745e+06 -7.93049e+06 648.856 -0.40712 -0.768601 7.90543e+06 
12 2 O 17.2375 11.0183 2.109 -14.5294 -8.05793e+06 -7.72719e+06 -7.93008e+06 -81.0335 0.401137 -0.317199 7.90507e+06 
13 1 Mg 19.9312 11.0183 0.195327 -14.3113 -6.13855e+06 -6.00636e+06 -6.07032e+06 -51.0618 0.176702 0.259114 6.07175e+06 
14 1 Mg 21.278 12.3793 2.109 -14.3112 -6.13929e+06 -6.00642e+06 -6.07053e+06 1141.6 0.499591 -0.123371 6.07208e+06 
15 2 O 21.278 12.3793 0.195327 -14.529 -8.06063e+06 -7.72738e+06 -7.93112e+06 1061.1 0.296984 -0.179979 7.90638e+06 
16 2 O 19.9312 11.0183 2.109 -14.5291 -8.05933e+06 -7.72734e+06 -7.93088e+06 -73.4141 0.595552 -0.583361 7.90585e+06 
17 1 Mg 22.6247 11.0183 0.195327 -14.3111 -6.14024e+06 -6.00637e+06 -6.07077e+06 -35.5498 -0.097875 0.3048 6.07246e+06 
18 1 Mg 23.9714 12.3793 2.109 -14.311 -6.14148e+06 -6.00653e+06 -6.07107e+06 1561.49 -0.343882 0.181227 6.07303e+06 
19 2 O 23.9714 12.3793 0.195327 -14.5289 -8.06421e+06 -7.727e+06 -7.93175e+06 1587.43 0.0483319 -0.156654 7.90765e+06 
20 2 O 22.6247 11.0183 2.109 -14.529 -8.06246e+06 -7.72703e+06 -7.93135e+06 -90.6623 -0.410893 -0.485351 7.90695e+06 
21 1 Mg 25.3179 11.0183 0.195327 -14.3109 -6.14293e+06 -6.00657e+06 -6.07139e+06 -46.9321 -0.415905 -0.16257 6.07363e+06 
22 1 Mg 26.6645 12.3794 2.109 -14.3107 -6.14415e+06 -6.00674e+06 -6.07191e+06 2142.32 -0.294098 -0.374237 6.07427e+06 
23 2 O 26.6645 12.3794 0.195327 -14.5288 -8.06886e+06 -7.72634e+06 -7.93242e+06 2000.56 -0.775945 -0.0408182 7.90921e+06 
24 2 O 25.3179 11.0183 2.109 -14.5288 -8.06645e+06 -7.72659e+06 -7.93217e+06 -96.3349 0.148461 -1.07182 7.9084e+06 
25 1 Mg 28.0109 11.0183 0.195327 -14.3105 -6.14551e+06 -6.0067e+06 -6.07238e+06 -43.1681 -0.543793 -0.0985545 6.07487e+06 
26 1 Mg 29.3573 12.3795 2.109 -14.3103 -6.14726e+06 -6.00679e+06 -6.0728e+06 2553.92 0.132523 0.222751 6.07562e+06 
27 2 O 29.3573 12.3795 0.195327 -14.5287 -8.07439e+06 -7.72543e+06 -7.93309e+06 2539.01 0.605413 -0.538915 7.91097e+06 
28 2 O 28.0109 11.0183 2.109 -14.5288 -8.07173e+06 -7.72568e+06 -7.93264e+06 -108.381 -0.148587 0.230131 7.91002e+06 
29 1 Mg 30.7035 11.0183 0.195327 -14.3101 -6.14956e+06 -6.0068e+06 -6.07318e+06 -35.8499 1.06841 -0.626215 6.07651e+06 
30 1 Mg 32.0498 12.3796 2.109 -14.3099 -6.15191e+06 -6.00712e+06 -6.07385e+06 3116.68 -0.201327 0.480027 6.07762e+06 
31 2 O 32.0497 12.3796 0.195327 -14.5284 -8.08119e+06 -7.72516e+06 -7.93459e+06 2882.99 0.0170156 0.45917 7.91364e+06 
32 2 O 30.7035 11.0183 2.109 -14.5286 -8.0776e+06 -7.72504e+06 -7.93381e+06 -115.024 0.071056 0.0860915 7.91215e+06 
33 1 Mg 33.3957 11.0183 0.195327 -14.3096 -6.15439e+06 -6.00732e+06 -6.0746e+06 -42.0946 -0.628989 0.220872 6.07877e+06 
34 1 Mg 34.7417 12.3797 2.109 -14.3094 -6.15692e+06 -6.00758e+06 -6.07527e+06 3563.97 -0.248767 0.272916 6.07993e+06 
35 2 O 34.7417 12.3797 0.195327 -14.5281 -8.08933e+06 -7.72499e+06 -7.93615e+06 3451.2 -0.0493122 0.796388 7.91682e+06 
36 2 O 33.3957 11.0183 2.109 -14.5283 -8.08545e+06 -7.72497e+06 -7.93535e+06 -112.628 -0.0790592 0.337897 7.91526e+06 
37 1 Mg 36.0874 11.0182 0.195327 -14.3092 -6.15977e+06 -6.00757e+06 -6.07575e+06 -27.8194 -0.0991209 -0.231218 6.08103e+06 
38 1 Mg 37.4331 12.3799 2.109 -14.3089 -6.16253e+06 -6.00777e+06 -6.07639e+06 4115.24 -0.466785 0.0516153 6.08223e+06 
39 2 O 37.4331 12.3799 0.195327 -14.5278 -8.09731e+06 -7.72448e+06 -7.93776e+06 3867.4 -0.478044 -0.353817 7.91985e+06 
40 2 O 36.0874 11.0182 2.109 -14.5279 -8.09332e+06 -7.72458e+06 -7.93698e+06 -123.343 0.143154 -0.200265 7.91829e+06 
41 1 Mg 38.7785 11.0182 0.195327 -14.3086 -6.16548e+06 -6.00804e+06 -6.07729e+06 -36.3114 0.072253 0.240141 6.08361e+06 
42 1 Mg 40.124 12.38 2.109 -14.3081 -6.16855e+06 -6.00876e+06 -6.07846e+06 4600.99 0.0987299 0.587794 6.08526e+06 
43 2 O 40.1239 12.38 0.195327 -14.5276 -8.10758e+06 -7.72453e+06 -7.93948e+06 4265.57 0.157734 0.100476 7.92386e+06 
44 2 O 38.7785 11.0182 2.109 -14.5277 -8.1023e+06 -7.72422e+06 -7.93854e+06 -114.787 0.391272 0.548252 7.92169e+06 
45 1 Mg 41.469 11.0182 0.195327 -14.3077 -6.1722e+06 -6.00937e+06 -6.07955e+06 -13.6204 -0.0999586 -0.0668765 6.08704e+06 
46 1 Mg 42.8141 12.3802 2.109 -14.3073 -6.17588e+06 -6.01009e+06 -6.08052e+06 5082.39 -0.265651 0.00599978 6.08883e+06 
47 2 O 42.8141 12.3802 0.195327 -14.5272 -8.11847e+06 -7.72518e+06 -7.94187e+06 4798.77 -0.154837 -0.40713 7.92851e+06 
48 2 O 41.469 11.0182 2.109 -14.5274 -8.11326e+06 -7.7247e+06 -7.94065e+06 -125.639 0.317774 0.457281 7.9262e+06 
49 1 Mg 44.1589 11.0182 0.195327 -14.3069 -6.17969e+06 -6.01062e+06 -6.08156e+06 -22.5175 -0.600309 0.552314 6.09062e+06 
50 1 Mg 45.5037 12.3803 2.109 -14.3064 -6.18327e+06 -6.01152e+06 -6.08281e+06 5575.93 0.381672 -0.449561 6.09253e+06 
51 2 O 45.5037 12.3803 0.195327 -14.5268 -8.13005e+06 -7.72597e+06 -7.94414e+06 5180.96 0.705727 -0.145466 7.93339e+06 
52 2 O 44.1588 11.0182 2.109 -14.527 -8.12423e+06 -7.72536e+06 -7.94302e+06 -112.087 -0.561821 0.190399 7.93087e+06 
53 1 Mg 46.848 11.0182 0.195327 -14.3059 -6.18728e+06 -6.01244e+06 -6.08413e+06 -12.0896 0.279354 0.32964 6.09462e+06 
54 1 Mg 48.1925 12.3805 2.109 -14.3054 -6.19146e+06 -6.01369e+06 -6.08545e+06 5931.25 -0.287221 0.50321 6.09687e+06 
55 2 O 48.1925 12.3805 0.195327 -14.5264 -8.14264e+06 -7.72759e+06 -7.94695e+06 5690.88 -0.177153 -0.101316 7.93906e+06 
56 2 O 46.848 11.0182 2.109 -14.5266 -8.1365e+06 -7.7265e+06 -7.94542e+06 -111.225 0.281974 -0.328208 7.93614e+06 
57 1 Mg 49.5365 11.0182 0.195327 -14.3049 -6.19598e+06 -6.01483e+06 -6.08679e+06 0.288998 0.368989 0.0322978 6.0992e+06 
58 1 Mg 50.8806 12.3806 2.109 -14.3043 -6.20015e+06 -6.01625e+06 -6.08826e+06 6482.36 0.591443 -0.155114 6.10155e+06 
59 2 O 50.8806 12.3806 0.195327 -14.5259 -8.15572e+06 -7.72987e+06 -7.94997e+06 5964.44 -0.0337718 -0.112274 7.94519e+06 
60 2 O 49.5364 11.0182 2.109 -14.5261 -8.14924e+06 -7.72853e+06 -7.94853e+06 -110.078 -0.481436 0.662143 7.9421e+06 
61 1 Mg 52.2242 11.0182 0.195327 -14.3037 -6.2047e+06 -6.01772e+06 -6.08992e+06 -12.356 0.393923 -0.240792 6.10412e+06 
62 1 Mg 53.5679 12.3807 2.109 -14.3031 -6.20933e+06 -6.01962e+06 -6.09155e+06 6693.71 0.113608 0.220698 6.10683e+06 
63 2 O 53.5679 12.3807 0.195327 -14.5253 -8.16972e+06 -7.73325e+06 -7.95339e+06 6432.13 0.255455 0.0623368 7.95212e+06 
64 2 O 52.2241 11.0182 2.109 -14.5256 -8.1629e+06 -7.73127e+06 -7.95155e+06 -90.4949 0.0246638 0.218942 7.94858e+06 
65 1 Mg 54.9111 11.0182 0.195327 -14.3025 -6.21444e+06 -6.02161e+06 -6.09324e+06 17.5626 0.48162 -0.627325 6.10976e+06 
66 1 Mg 56.2545 12.3808 2.109 -14.3018 -6.21917e+06 -6.0239e+06 -6.09504e+06 7116.93 0.857175 0.0897634 6.1127e+06 
67 2 O 56.2545 12.3808 0.195327 -14.5247 -8.1841e+06 -7.73785e+06 -7.95733e+06 6692.79 0.0518252 0.340842 7.95976e+06 
68 2 O 54.9111 11.0182 2.109 -14.525 -8.17709e+06 -7.73534e+06 -7.95539e+06 -102.329 -0.499213 -0.451912 7.95594e+06 
69 1 Mg 57.5973 11.0182 0.195327 -14.3011 -6.22413e+06 -6.02632e+06 -6.09703e+06 9.03581 -0.46882 -0.507394 6.11583e+06 
70 1 Mg 58.9404 12.3808 2.109 -14.3003 -6.22889e+06 -6.02907e+06 -6.09902e+06 7310.86 -0.308785 0.39746 6.11899e+06 
71 2 O 58.9403 12.3808 0.195327 -14.5241 -8.19888e+06 -7.74358e+06 -7.96134e+06 6898.73 -0.474416 -0.571444 7.96793e+06 
72 2 O 57.5973 11.0182 2.109 -14.5244 -8.19176e+06 -7.74043e+06 -7.95933e+06 -91.8551 -0.609197 -0.63527 7.96384e+06 
73 1 Mg 60.2828 11.0181 0.195327 -14.2995 -6.23413e+06 -6.03204e+06 -6.1011e+06 31.4853 0.425102 0.395686 6.12242e+06 
74 1 Mg 61.6255 12.3808 2.109 -14.2987 -6.23909e+06 -6.0354e+06 -6.10329e+06 7474.43 0.798274 -0.612822 6.12593e+06 
75 2 O 61.6255 12.3808 0.195327 -14.5235 -8.21357e+06 -7.75105e+06 -7.96597e+06 6955.04 -0.176019 -0.621736 7.97686e+06 
76 2 O 60.2828 11.0181 2.109 -14.5238 -8.20643e+06 -7.747e+06 -7.96362e+06 -103.514 0.694453 0.0780874 7.97235e+06 
77 1 Mg 62.9676 11.0181 0.195327 -14.2979 -6.2443e+06 -6.03898e+06 -6.10564e+06 26.201 -1.13688 0.370683 6.12964e+06 
78 1 Mg 64.31 12.3807 2.109 -14.297 -6.24913e+06 -6.04299e+06 -6.10805e+06 7456.37 0.117189 -0.828389 6.13339e+06 
79 2 O 64.31 12.3807 0.195327 -14.5228 -8.22832e+06 -7.76032e+06 -7.97082e+06 6990.65 0.711901 -0.403509 7.98649e+06 
80 2 O 62.9676 11.0181 2.109 -14.5232 -8.22117e+06 -7.75542e+06 -7.96836e+06 -84.2627 -0.160958 0.37863 7.98165e+06 
81 1 Mg 65.6518 11.0181 0.195327 -14.2961 -6.25432e+06 -6.04737e+06 -6.11061e+06 38.4922 0.357123 -0.299795 6.13743e+06 
82 1 Mg 66.994 12.3806 2.109 -14.2952 -6.25926e+06 -6.05208e+06 -6.11304e+06 7161.38 0.224127 0.31397 6.14146e+06 
83 2 O 66.994 12.3806 0.195327 -14.522 -8.2425e+06 -7.77172e+06 -7.97636e+06 6918.22 0.0521776 1.01635 7.99686e+06 
84 2 O 65.6518 11.0181 2.109 -14.5225 -8.23578e+06 -7.76575e+06 -7.97355e+06 -92.2363 0.415306 -0.589426 7.99169e+06 
85 1 Mg 68.3355 11.0181 0.195327 -14.2943 -6.26442e+06 -6.05726e+06 -6.1157e+06 66.3457 -0.564385 -0.39719 6.14579e+06 
86 1 Mg 69.6775 12.3804 2.109 -14.2933 -6.26895e+06 -6.06266e+06 -6.11842e+06 7017.12 0.501953 -0.180427 6.15001e+06 
87 2 O 69.6776 12.3804 0.195327 -14.5212 -8.25588e+06 -7.7854e+06 -7.98226e+06 6425.82 0.710925 -0.247032 8.00785e+06 
88 2 O 68.3355 11.0181 2.109 -14.5216 -8.24952e+06 -7.77835e+06 -7.97941e+06 -106.767 -0.0607048 -0.0951428 8.00243e+06 
89 1 Mg 71.0189 11.0181 0.195327 -14.2923 -6.27358e+06 -6.06855e+06 -6.12135e+06 34.0511 0.230197 -0.0379938 6.1545e+06 
90 1 Mg 72.3608 12.38 2.109 -14.2914 -6.2779e+06 -6.07479e+06 -6.12412e+06 6288.88 -0.632038 -0.0307167 6.15894e+06 
91 2 O 72.3608 12.38 0.195327 -14.5204 -8.26803e+06 -7.80143e+06 -7.9884e+06 6191.23 -0.316759 -0.473489 8.01929e+06 
92 2 O 71.0189 11.0181 2.109 -14.5209 -8.26239e+06 -7.7932e+06 -7.98521e+06 -65.3277 0.186581 0.0737436 8.0136e+06 
93 1 Mg 73.702 11.0181 0.195327 -14.2904 -6.2823e+06 -6.08165e+06 -6.12703e+06 59.4809 -0.0735676 -0.281124 6.16366e+06 
94 1 Mg 75.0439 12.3796 2.109 -14.2895 -6.28613e+06 -6.08859e+06 -6.12982e+06 5619.81 0.0247259 0.767772 6.16818e+06 
95 2 O 75.0439 12.3796 0.195327 -14.5195 -8.27837e+06 -7.81991e+06 -7.99508e+06 5503.33 -0.257515 0.227207 8.03112e+06 
96 2 O 73.7021 11.0181 2.109 -14.52 -8.2736e+06 -7.81053e+06 -7.99181e+06 -83.6521 -0.4582 -0.653381 8.02531e+06 
97 1 Mg 76.3852 11.0181 0.195327 -14.2885 -6.28989e+06 -6.09622e+06 -6.13287e+06 71.2105 -0.697735 0.127816 6.17299e+06 
98 1 Mg 77.7271 12.379 2.109 -14.2876 -6.29306e+06 -6.10377e+06 -6.13567e+06 4710.38 -0.966143 -0.196979 6.1775e+06 
99 2 O 77.7271 12.379 0.195327 -14.5186 -8.28663e+06 -7.84083e+06 -8.00188e+06 4511.97 -0.11432 0.834939 8.04312e+06 
100 2 O 76.3852 11.0181 2.109 -14.519 -8.28292e+06 -7.83033e+06 -7.99863e+06 -80.9844 0.155651 0.205524 8.03729e+06 
101 1 Mg 79.0685 11.0181 0.195327 -14.2866 -6.29614e+06 -6.11194e+06 -6.1386e+06 56.2226 -0.194467 0.365213 6.18223e+06 
102 1 Mg 80.4106 12.3784 2.109 -14.2858 -6.29878e+06 -6.12032e+06 -6.14139e+06 3531.17 0.1872 -0.0187874 6.18683e+06 
103 2 O 80.4106 12.3784 0.195327 -14.5175 -8.29239e+06 -7.86408e+06 -8.00901e+06 3794.25 0.61642 0.225767 8.05516e+06 
104 2 O 79.0685 11.0181 2.109 -14.5181 -8.28984e+06 -7.85243e+06 -8.00533e+06 -47.7784 0.109154 0.256474 8.0492e+06 
105 1 Mg 81.7522 11.0181 0.195327 -14.2849 -6.30118e+06 -6.12916e+06 -6.14411e+06 76.1164 0.262291 0.0710491 6.19149e+06 
106 1 Mg 83.0946 12.3776 2.109 -14.2842 -6.30302e+06 -6.13796e+06 -6.14684e+06 2559.71 0.266648 0.171022 6.19594e+06 
107 2 O 83.0947 12.3776 0.195327 -14.5164 -8.29542e+06 -7.88942e+06 -8.01613e+06 2737.54 -0.485453 0.0509128 8.06699e+06 
108 2 O 81.7523 11.0181 2.109 -14.517 -8.29414e+06 -7.8768e+06 -8.01256e+06 -56.4483 0.0709843 -0.172419 8.06117e+06 
109 1 Mg 84.4366 11.0181 0.195327 -14.2834 -6.30452e+06 -6.14737e+06 -6.14969e+06 83.0538 0.437876 -0.706527 6.20053e+06 
110 1 Mg 85.7794 12.3767 2.109 -14.2827 -6.30573e+06 -6.15635e+06 -6.152e+06 1119.91 -0.501038 0.154505 6.20469e+06 
111 2 O 85.7795 12.3767 0.195327 -14.5153 -8.29556e+06 -7.91658e+06 -8.02321e+06 1380.24 0.463646 0.784184 8.07845e+06 
112 2 O 84.4367 11.0181 2.109 -14.5159 -8.2958e+06 -7.90321e+06 -8.0199e+06 -56.5922 -0.49036 -0.348695 8.07297e+06 
113 1 Mg 87.1219 11.0181 0.195327 -14.282 -6.30639e+06 -6.16601e+06 -6.15451e+06 87.4924 -0.0109138 -0.224982 6.20897e+06 
114 1 Mg 88.4652 12.3758 2.109 -14.2814 -6.30688e+06 -6.17519e+06 -6.15668e+06 -193.213 -0.458155 0.279762 6.21291e+06 
115 2 O 88.4652 12.3758 0.195327 -14.5141 -8.29282e+06 -7.94501e+06 -8.03023e+06 183.823 0.0982038 -0.221193 8.08935e+06 
116 2 O 87.122 11.0181 2.109 -14.5147 -8.29442e+06 -7.931e+06 -8.02684e+06 -43.7974 0.302221 -0.538666 8.08408e+06 
117 1 Mg 89.8083 11.0181 0.195327 -14.2809 -6.30669e+06 -6.18478e+06 -6.15863e+06 105.325 -0.231203 0.409128 6.2167e+06 
118 1 Mg 91.1521 12.3748 2.109 -14.2804 -6.30646e+06 -6.19395e+06 -6.16073e+06 -1075.81 0.0945235 -0.620106 6.22038e+06 
119 2 O 91.1522 12.3748 0.195327 -14.5128 -8.28727e+06 -7.97415e+06 -8.03687e+06 -690.747 0.259791 -0.471928 8.09943e+06 
120 2 O 89.8083 11.0181 2.109 -14.5134 -8.29017e+06 -7.95965e+06 -8.03343e+06 -29.6193 -0.171097 0.486901 8.09442e+06 
121 1 Mg 92.4959 11.0181 0.195327 -14.28 -6.30556e+06 -6.20327e+06 -6.16252e+06 115.77 1.03541 -0.854823 6.22379e+06 
122 1 Mg 93.8404 12.3737 2.109 -14.2797 -6.3047e+06 -6.21221e+06 -6.16404e+06 -2117.89 -0.0842056 0.805189 6.22698e+06 
123 2 O 93.8405 12.3737 0.195327 -14.5115 -8.27918e+06 -8.0033e+06 -8.04308e+06 -1727.67 -0.384054 0.909765 8.10852e+06 
124 2 O 92.4959 11.0181 2.109 -14.5122 -8.2832e+06 -7.98916e+06 -8.04003e+06 -21.5887 1.20923 -0.0134777 8.10413e+06 
125 1 Mg 95.1849 11.0181 0.195327 -14.2794 -6.30325e+06 -6.22114e+06 -6.16561e+06 115.259 -0.381958 -0.368259 6.23e+06 
126 1 Mg 96.5302 12.3727 2.109 -14.2792 -6.30188e+06 -6.22937e+06 -6.16666e+06 -3135.63 0.106902 0.881159 6.23264e+06 
127 2 O 96.5302 12.3727 0.195327 -14.5101 -8.26897e+06 -8.03212e+06 -8.04882e+06 -2841.49 0.301721 0.211764 8.11664e+06 
128 2 O 95.185 11.0181 2.109 -14.5108 -8.27397e+06 -8.01831e+06 -8.04618e+06 -23.7296 -0.543803 0.0913579 8.11282e+06 
129 1 Mg 97.8755 11.0181 0.195327 -14.2791 -6.29992e+06 -6.23768e+06 -6.16765e+06 122.586 -0.126653 0.208171 6.23508e+06 
130 1 Mg 99.2214 12.3717 2.109 -14.2791 -6.29826e+06 -6.2453e+06 -6.16853e+06 -3702.2 0.320029 0.257445 6.23736e+06 
131 2 O 99.2215 12.3717 0.195327 -14.5088 -8.25717e+06 -8.05973e+06 -8.05403e+06 -3531.66 -0.203145 -0.366881 8.12364e+06 
132 2 O 97.8755 11.0181 2.109 -14.5095 -8.26286e+06 -8.0463e+06 -8.05147e+06 -18.0627 -0.761806 -0.234946 8.12021e+06 
133 1 Mg 100.568 11.0181 0.195327 -14.2791 -6.29604e+06 -6.25263e+06 -6.16906e+06 137.258 -1.12868 -0.132971 6.23924e+06 
134 1 Mg 101.914 12.3707 2.109 -14.2791 -6.2941e+06 -6.25968e+06 -6.16969e+06 -3925.36 0.0579958 -0.0925615 6.24116e+06 
135 2 O 101.914 12.3707 0.195327 -14.5075 -8.2443e+06 -8.08566e+06 -8.05863e+06 -3934.12 -0.356207 0.605669 8.12953e+06 
136 2 O 100.568 11.0181 2.109 -14.5081 -8.25042e+06 -8.07314e+06 -8.05625e+06 3.0568 0.131567 -1.07405 8.1266e+06 
137 1 Mg 103.261 11.0181 0.195327 -14.2792 -6.29174e+06 -6.266e+06 -6.16987e+06 154.28 0.876394 -0.0109306 6.24254e+06 
138 1 Mg 104.609 12.3698 2.109 -14.2794 -6.28981e+06 -6.27212e+06 -6.1703e+06 -3881.98 -0.503125 0.14488 6.24408e+06 
139 2 O 104.609 12.3698 0.195327 -14.5062 -8.23102e+06 -8.10974e+06 -8.06265e+06 -4034.2 -0.286419 0.0200737 8.13447e+06 
140 2 O 103.261 11.0181 2.109 -14.5068 -8.23724e+06 -8.09804e+06 -8.06044e+06 14.7432 0.0274164 -1.38715 8.13191e+06 
141 1 Mg 105.956 11.0181 0.195327 -14.2795 -6.28743e+06 -6.27756e+06 -6.17021e+06 157.859 -0.285697 -0.228696 6.24507e+06 
142 1 Mg 107.304 12.369 2.109 -14.2798 -6.28554e+06 -6.28279e+06 -6.17036e+06 -3647.2 -0.696903 -0.138041 6.24623e+06 
143 2 O 107.304 12.369 0.195327 -14.5049 -8.21791e+06 -8.13119e+06 -8.06603e+06 -3789.84 0.527349 0.124742 8.13837e+06 
144 2 O 105.956 11.0181 2.109 -14.5056 -8.22398e+06 -8.12073e+06 -8.06409e+06 12.1259 -0.425915 0.124131 8.13627e+06 
145 1 Mg 108.653 11.0181 0.195327 -14.28 -6.28334e+06 -6.28718e+06 -6.17024e+06 158.613 0.14251 0.577942 6.24692e+06 
146 1 Mg 110.001 12.3683 2.109 -14.2802 -6.28163e+06 -6.29156e+06 -6.17005e+06 -3276.57 -0.400306 -0.240686 6.24775e+06 
147 2 O 110.001 12.3683 0.195327 -14.5038 -8.2056e+06 -8.14987e+06 -8.06882e+06 -3439.46 -0.892452 0.288283 8.14143e+06 
148 2 O 108.653 11.0181 2.109 -14.5044 -8.21125e+06 -8.14094e+06 -8.06733e+06 11.3185 0.0812205 0.454147 8.13984e+06 
149 1 Mg 111.35 11.0181 0.195327 -14.2805 -6.27973e+06 -6.29525e+06 -6.17001e+06 162.773 0.881776 0.836951 6.24833e+06 
150 1 Mg 112.699 12.3677 2.109 -14.2807 -6.27818e+06 -6.29857e+06 -6.16956e+06 -2818.03 -0.400786 0.48381 6.24877e+06 
151 2 O 112.699 12.3677 0.195327 -14.5028 -8.19475e+06 -8.16538e+06 -8.07108e+06 -3027.81 -0.0745352 0.40088 8.14374e+06 
152 2 O 111.35 11.0181 2.109 -14.5033 -8.19979e+06 -8.15799e+06 -8.07017e+06 12.603 0.308689 0.371795 8.14265e+06 
153 1 Mg 114.049 11.0182 0.195327 -14.281 -6.27672e+06 -6.30115e+06 -6.16957e+06 167.823 -0.234511 0.263054 6.24915e+06 
154 1 Mg 115.399 12.3673 2.109 -14.2812 -6.27543e+06 -6.30388e+06 -6.169e+06 -2209.85 0.490908 -0.243934 6.24944e+06 
155 2 O 115.399 12.3673 0.195327 -14.502 -8.18577e+06 -8.17757e+06 -8.07291e+06 -2561.06 0.375531 0.389491 8.14542e+06 
156 2 O 114.049 11.0182 2.109 -14.5024 -8.18983e+06 -8.17215e+06 -8.07226e+06 18.7721 -0.492072 0.755558 8.14475e+06 
157 1 Mg 116.748 11.0182 0.195327 -14.2814 -6.27432e+06 -6.30535e+06 -6.169e+06 167.421 0.267972 -0.718039 6.24956e+06 
158 1 Mg 118.098 12.367 2.109 -14.2816 -6.2735e+06 -6.30733e+06 -6.16857e+06 -1583.82 -0.775404 0.270499 6.2498e+06 
159 2 O 118.098 12.367 0.195327 -14.5014 -8.17906e+06 -8.18668e+06 -8.07425e+06 -1835.17 -0.0544098 0.301072 8.14666e+06 
160 2 O 116.748 11.0182 2.109 -14.5017 -8.18182e+06 -8.18285e+06 -8.07363e+06 39.697 -0.439752 -0.0423987 8.1461e+06 
161 1 Mg 119.448 11.0182 0.195327 -14.2817 -6.27267e+06 -6.30833e+06 -6.16839e+06 164.755 0.0824909 -0.554183 6.24979e+06 
162 1 Mg 120.799 12.3668 2.109 -14.2819 -6.27236e+06 -6.30932e+06 -6.16827e+06 -875.608 0.330817 0.139512 6.24998e+06 
163 2 O 120.799 12.3668 0.195327 -14.501 -8.1749e+06 -8.19216e+06 -8.07508e+06 -849.815 0.595838 -0.375057 8.14738e+06 
164 2 O 119.448 11.0182 2.109 -14.5012 -8.17638e+06 -8.18966e+06 -8.07455e+06 55.8691 0.107311 0.598614 8.14686e+06 
165 1 Mg 122.149 11.0182 0.195327 -14.282 -6.27193e+06 -6.30977e+06 -6.16793e+06 158.25 -0.407947 -0.0296447 6.24988e+06 
166 1 Mg 123.499 12.3667 2.109 -14.282 -6.27204e+06 -6.30999e+06 -6.16808e+06 114.372 0.0318139 -0.0685025 6.25004e+06 
167 2 O 123.499 12.3667 0.195327 -14.5008 -8.17343e+06 -8.19392e+06 -8.07544e+06 150.18 0.342921 -1.20614 8.1476e+06 
168 2 O 122.149 11.0182 2.109 -14.5009 -8.17368e+06 -8.19305e+06 -8.07513e+06 69.6682 -0.956208 -0.593349 8.14729e+06 
169 1 Mg 127.55 11.0182 0.195327 -14.2819 -6.27284e+06 -6.30805e+06 -6.16812e+06 119.347 -0.595662 -0.947972 6.24967e+06 
170 1 Mg 128.9 12.367 2.109 -14.2818 -6.27379e+06 -6.30709e+06 -6.16827e+06 1883 -0.317003 -0.25755 6.24972e+06 
171 2 O 128.9 12.367 0.195327 -14.5012 -8.17894e+06 -8.18667e+06 -8.07459e+06 2067.02 -0.244799 -0.182453 8.14673e+06 
172 2 O 127.55 11.0182 2.109 -14.501 -8.17633e+06 -8.18979e+06 -8.07475e+06 117.177 -0.121292 -0.609712 8.14695e+06 
173 1 Mg 130.25 11.0182 0.195327 -14.2816 -6.27459e+06 -6.30498e+06 -6.16858e+06 96.9166 0.938262 0.0612055 6.24939e+06 
174 1 Mg 131.6 12.3673 2.109 -14.2815 -6.27583e+06 -6.30341e+06 -6.16858e+06 2486.9 -0.487786 -0.352534 6.24927e+06 
175 2 O 131.6 12.3674 0.195327 -14.5017 -8.18559e+06 -8.17765e+06 -8.07334e+06 2812.43 -0.765256 -0.205964 8.14553e+06 
176 2 O 130.25 11.0182 2.109 -14.5015 -8.1817e+06 -8.1829e+06 -8.07393e+06 137.137 0.115047 -0.525462 8.14618e+06 
177 1 Mg 132.95 11.0182 0.195327 -14.2813 -6.27711e+06 -6.30066e+06 -6.16909e+06 77.0432 -0.126125 0.0633796 6.24895e+06 
178 1 Mg 134.299 12.3678 2.109 -14.2811 -6.27865e+06 -6.29801e+06 -6.169e+06 3026.05 0.0478904 0.104076 6.24855e+06 
179 2 O 134.299 12.3678 0.195327 -14.5025 -8.19455e+06 -8.16543e+06 -8.07156e+06 3263.24 -0.0841476 -0.377641 8.14384e+06 
180 2 O 132.95 11.0182 2.109 -14.5021 -8.18966e+06 -8.17225e+06 -8.07272e+06 156.487 -0.273614 0.587846 8.14488e+06 
181 1 Mg 135.648 11.0182 0.195327 -14.2809 -6.28022e+06 -6.29474e+06 -6.16948e+06 52.8167 -0.147492 0.0695318 6.24815e+06 
182 1 Mg 136.997 12.3684 2.109 -14.2806 -6.28213e+06 -6.29087e+06 -6.16942e+06 3409.51 0.314858 0.0307209 6.24747e+06 
183 2 O 136.997 12.3684 0.195327 -14.5034 -8.20542e+06 -8.14993e+06 -8.06934e+06 3602 0.176275 -0.269302 8.14156e+06 
184 2 O 135.648 11.0182 2.109 -14.503 -8.19963e+06 -8.15803e+06 -8.07079e+06 173.256 0.387978 0.285431 8.14282e+06 
185 1 Mg 138.346 11.0182 0.195327 -14.2804 -6.28391e+06 -6.2866e+06 -6.16961e+06 32.2004 -0.637448 -0.373398 6.24671e+06 
186 1 Mg 139.694 12.3692 2.109 -14.2802 -6.28608e+06 -6.28212e+06 -6.16966e+06 3709.28 0.0116601 0.158348 6.24595e+06 
187 2 O 139.694 12.3692 0.195327 -14.5045 -8.21777e+06 -8.13111e+06 -8.06664e+06 3932.16 0.342815 -0.729245 8.13851e+06 
188 2 O 138.346 11.0182 2.109 -14.504 -8.21109e+06 -8.14089e+06 -8.06801e+06 186.758 -0.575019 -0.593366 8.14e+06 
189 1 Mg 141.042 11.0183 0.195327 -14.28 -6.28801e+06 -6.27678e+06 -6.16946e+06 12.4403 -0.623506 -0.262258 6.24475e+06 
190 1 Mg 142.39 12.37 2.109 -14.2798 -6.29037e+06 -6.2714e+06 -6.16956e+06 3959.25 -0.242896 -0.0727763 6.24378e+06 
191 2 O 142.39 12.37 0.195327 -14.5057 -8.23091e+06 -8.10959e+06 -8.0633e+06 4219.19 -0.48842 0.211887 8.1346e+06 
192 2 O 141.042 11.0183 2.109 -14.5051 -8.22383e+06 -8.12067e+06 -8.06469e+06 203.781 -0.0503036 -0.559969 8.1364e+06 
193 1 Mg 143.737 11.0183 0.195327 -14.2797 -6.29225e+06 -6.26525e+06 -6.16905e+06 -8.75489 0.0628703 -0.905858 6.24218e+06 
194 1 Mg 145.084 12.3709 2.109 -14.2796 -6.29464e+06 -6.25893e+06 -6.16892e+06 4059.11 0.35705 -0.43451 6.24083e+06 
195 2 O 145.084 12.3709 0.195327 -14.507 -8.2442e+06 -8.08549e+06 -8.05928e+06 4203.2 -0.12339 0.0554226 8.12966e+06 
196 2 O 143.737 11.0183 2.109 -14.5064 -8.23717e+06 -8.09783e+06 -8.06102e+06 219.155 -0.169429 0.569036 8.13201e+06 
197 1 Mg 146.431 11.0183 0.195327 -14.2795 -6.29649e+06 -6.25197e+06 -6.16832e+06 -24.0115 0.57172 0.209822 6.23893e+06 
198 1 Mg 147.777 12.3719 2.109 -14.2795 -6.29872e+06 -6.24461e+06 -6.16774e+06 3773.19 -0.0680272 0.320452 6.23702e+06 
199 2 O 147.777 12.3719 0.195327 -14.5084 -8.25706e+06 -8.0595e+06 -8.05467e+06 3730.17 -0.371137 0.51188 8.12374e+06 
200 2 O 146.431 11.0183 2.109 -14.5077 -8.25039e+06 -8.07295e+06 -8.05693e+06 213.718 0.409319 -0.283889 8.12675e+06 
201 1 Mg 149.123 11.0183 0.195327 -14.2796 -6.30034e+06 -6.23704e+06 -6.16697e+06 -35.2599 -0.111895 0.130775 6.23479e+06 
202 1 Mg 150.468 12.3729 2.109 -14.2797 -6.30225e+06 -6.22873e+06 -6.16591e+06 3044.19 -0.128404 0.284065 6.2323e+06 
203 2 O 150.468 12.3729 0.195327 -14.5097 -8.26891e+06 -8.03186e+06 -8.04947e+06 2832.21 -0.243263 -0.62043 8.11675e+06 
204 2 O 149.123 11.0183 2.109 -14.509 -8.26277e+06 -8.04619e+06 -8.0522e+06 213.896 0.387383 -0.728083 8.12039e+06 
205 1 Mg 151.813 11.0183 0.195327 -14.2799 -6.30361e+06 -6.22047e+06 -6.16476e+06 -29.3452 -0.178203 0.770251 6.22961e+06 
206 1 Mg 153.158 12.374 2.109 -14.2801 -6.305e+06 -6.21159e+06 -6.16328e+06 2056.67 0.674739 -0.0962734 6.22662e+06 
207 2 O 153.158 12.374 0.195327 -14.5111 -8.27913e+06 -8.00301e+06 -8.0437e+06 1805.86 0.651562 0.129863 8.10861e+06 
208 2 O 151.813 11.0183 2.109 -14.5104 -8.27385e+06 -8.01797e+06 -8.04671e+06 222.016 -0.400614 -0.0917664 8.11284e+06 
209 1 Mg 154.502 11.0183 0.195327 -14.2805 -6.30584e+06 -6.20262e+06 -6.16161e+06 -41.1116 0.27721 -0.422 6.22336e+06 
210 1 Mg 155.846 12.375 2.109 -14.2809 -6.30669e+06 -6.19339e+06 -6.15992e+06 1164.55 -0.0847507 0.460448 6.22e+06 
211 2 O 155.846 12.375 0.195327 -14.5124 -8.28721e+06 -7.97375e+06 -8.03743e+06 966.251 0.528256 -0.262839 8.09946e+06 
212 2 O 154.502 11.0183 2.109 -14.5117 -8.2831e+06 -7.98869e+06 -8.04048e+06 214.021 -0.65933 -0.0747998 8.10409e+06 
213 1 Mg 157.19 11.0183 0.195327 -14.2813 -6.30685e+06 -6.18426e+06 -6.15794e+06 -58.4765 -0.00419481 0.308749 6.21635e+06 
214 1 Mg 158.533 12.376 2.109 -14.2819 -6.30698e+06 -6.17469e+06 -6.15587e+06 166.637 -0.176824 -0.439475 6.21252e+06 
215 2 O 158.533 12.376 0.195327 -14.5137 -8.29277e+06 -7.94453e+06 -8.03073e+06 6.85476 -0.173671 -0.0696842 8.08934e+06 
216 2 O 157.19 11.0183 2.109 -14.513 -8.29014e+06 -7.95928e+06 -8.03406e+06 191.154 0.820703 0.285158 8.09449e+06 
217 1 Mg 159.876 11.0183 0.195327 -14.2824 -6.30646e+06 -6.16561e+06 -6.15385e+06 -63.3241 -0.366052 -0.0398774 6.20864e+06 
218 1 Mg 161.219 12.377 2.109 -14.2831 -6.30575e+06 -6.15596e+06 -6.15124e+06 -1233.62 0.00193156 0.704433 6.20432e+06 
219 2 O 161.219 12.377 0.195327 -14.5149 -8.29552e+06 -7.9161e+06 -8.02376e+06 -1404.06 0.394195 1.04999 8.07846e+06 
220 2 O 159.876 11.0183 2.109 -14.5143 -8.29441e+06 -7.93063e+06 -8.0275e+06 193.673 0.150451 0.221107 8.08418e+06 
221 1 Mg 162.561 11.0184 0.195327 -14.2838 -6.30451e+06 -6.14695e+06 -6.14892e+06 -62.2896 -0.755214 0.669404 6.20013e+06 
222 1 Mg 163.903 12.3779 2.109 -14.2846 -6.30291e+06 -6.1376e+06 -6.14616e+06 -2641.94 -0.230202 0.553516 6.19556e+06 
223 2 O 163.903 12.3779 0.195327 -14.5161 -8.29537e+06 -7.88894e+06 -8.0166e+06 -2712.26 -0.858502 0.215763 8.06697e+06 
224 2 O 162.561 11.0184 2.109 -14.5155 -8.29568e+06 -7.90275e+06 -8.02034e+06 200.74 0.266312 0.23318 8.07292e+06 
225 1 Mg 165.246 11.0184 0.195327 -14.2853 -6.30096e+06 -6.12884e+06 -6.14338e+06 -63.5867 0.474256 -0.018724 6.19106e+06 
226 1 Mg 166.587 12.3786 2.109 -14.2862 -6.29859e+06 -6.12002e+06 -6.14066e+06 -3699.83 -0.344511 0.19037 6.18643e+06 
227 2 O 166.587 12.3786 0.195327 -14.5172 -8.29231e+06 -7.86352e+06 -8.00945e+06 -3605.09 -0.277839 0.33903 8.05509e+06 
228 2 O 165.246 11.0184 2.109 -14.5166 -8.29411e+06 -7.87621e+06 -8.01291e+06 179.82 0.582612 0.124884 8.06108e+06 
229 1 Mg 167.93 11.0184 0.195327 -14.2871 -6.296e+06 -6.11173e+06 -6.1378e+06 -82.0209 -0.595721 0.482048 6.18184e+06 
230 1 Mg 169.271 12.3793 2.109 -14.288 -6.29287e+06 -6.10349e+06 -6.13492e+06 -4622.92 0.136658 -0.11582 6.17709e+06 
231 2 O 169.271 12.3793 0.195327 -14.5182 -8.28649e+06 -7.84023e+06 -8.00232e+06 -4585.02 -0.00296091 -0.763244 8.04301e+06 
232 2 O 167.93 11.0184 2.109 -14.5177 -8.28973e+06 -7.85181e+06 -8.00589e+06 179.876 0.0244543 0.704656 8.04914e+06 
233 1 Mg 170.613 11.0184 0.195327 -14.2888 -6.28958e+06 -6.09588e+06 -6.13227e+06 -62.4555 -0.180746 0.254429 6.17258e+06 
234 1 Mg 171.954 12.3799 2.109 -14.2898 -6.28571e+06 -6.08831e+06 -6.12923e+06 -5708.95 0.248346 -0.472961 6.16775e+06 
235 2 O 171.954 12.3799 0.195327 -14.5192 -8.27834e+06 -7.81923e+06 -7.99532e+06 -5499.52 0.168601 -0.169102 8.03096e+06 
236 2 O 170.613 11.0184 2.109 -14.5187 -8.2828e+06 -7.82978e+06 -7.99894e+06 154.428 -0.257035 0.621501 8.03717e+06 
237 1 Mg 173.296 11.0184 0.195327 -14.2907 -6.28183e+06 -6.08142e+06 -6.12647e+06 -57.834 -0.01461 0.281871 6.16324e+06 
238 1 Mg 174.637 12.3803 2.109 -14.2917 -6.27755e+06 -6.07466e+06 -6.12346e+06 -6582.29 -0.198743 -0.640034 6.15856e+06 
239 2 O 174.637 12.3803 0.195327 -14.5201 -8.26799e+06 -7.80068e+06 -7.98877e+06 -6035.61 0.433519 -0.549869 8.01915e+06 
240 2 O 173.296 11.0184 2.109 -14.5197 -8.27362e+06 -7.80981e+06 -7.99202e+06 136.445 -0.158244 0.0368059 8.02515e+06 
241 1 Mg 175.979 11.0184 0.195327 -14.2927 -6.27333e+06 -6.06851e+06 -6.12054e+06 -74.6931 0.535017 -0.228926 6.15413e+06 
242 1 Mg 177.321 12.3807 2.109 -14.2937 -6.26852e+06 -6.06248e+06 -6.11783e+06 -6803.1 0.00586728 -0.107932 6.14961e+06 
243 2 O 177.32 12.3806 0.195327 -14.521 -8.25585e+06 -7.78461e+06 -7.98249e+06 -6645.21 0.385526 -0.122269 8.00765e+06 
244 2 O 175.979 11.0184 2.109 -14.5205 -8.26228e+06 -7.79237e+06 -7.98568e+06 149.589 -0.0269458 -0.187726 8.01344e+06 
245 1 Mg 178.663 11.0184 0.195327 -14.2945 -6.26378e+06 -6.05703e+06 -6.11528e+06 -46.0165 0.0995466 -0.169626 6.14536e+06 
246 1 Mg 180.004 12.3809 2.109 -14.2955 -6.25867e+06 -6.05185e+06 -6.11252e+06 -7299.35 0.373289 0.0152162 6.14102e+06 
247 2 O 180.004 12.3809 0.195327 -14.5219 -8.24249e+06 -7.77089e+06 -7.97645e+06 -6897.86 -0.215199 0.398085 7.99661e+06 
248 2 O 178.662 11.0184 2.109 -14.5215 -8.24959e+06 -7.77755e+06 -7.97947e+06 107.85 0.784175 0.241626 8.0022e+06 