 # Rocksalt MgO oriented X=[100] Y=[010] Z=[001].
 
         192  atoms
           2  atom types
 
      0.00000000       8.42600000  xlo xhi
      0.00000000      12.63900000  ylo yhi
      0.00000000      16.85200000  zlo zhi
      0.0 0.0 0.0 xy xz yz
 
Masses
 
           1   24.30500000    # Mg
           2   15.99900000    # O 
 
Atoms # atomic
 
         1     1      1.7       0.00000000       0.00000000       0.00000000
         2     1      1.7       2.10650000       2.10650000       0.00000000
         3     1      1.7       0.00000000       2.10650000       2.10650000
         4     1      1.7       2.10650000       0.00000000       2.10650000
         5     2     -1.7       2.10650000       0.00000000       0.00000000
         6     2     -1.7       0.00000000       2.10650000       0.00000000
         7     2     -1.7       0.00000000       0.00000000       2.10650000
         8     2     -1.7       2.10650000       2.10650000       2.10650000
         9     1      1.7       4.21300000       0.00000000       0.00000000
        10     1      1.7       6.31950000       2.10650000       0.00000000
        11     1      1.7       4.21300000       2.10650000       2.10650000
        12     1      1.7       6.31950000       0.00000000       2.10650000
        13     2     -1.7       6.31950000       0.00000000       0.00000000
        14     2     -1.7       4.21300000       2.10650000       0.00000000
        15     2     -1.7       4.21300000       0.00000000       2.10650000
        16     2     -1.7       6.31950000       2.10650000       2.10650000
        17     1      1.7       0.00000000       4.21300000       0.00000000
        18     1      1.7       2.10650000       6.31950000       0.00000000
        19     1      1.7       0.00000000       6.31950000       2.10650000
        20     1      1.7       2.10650000       4.21300000       2.10650000
        21     2     -1.7       2.10650000       4.21300000       0.00000000
        22     2     -1.7       0.00000000       6.31950000       0.00000000
        23     2     -1.7       0.00000000       4.21300000       2.10650000
        24     2     -1.7       2.10650000       6.31950000       2.10650000
        25     1      1.7       4.21300000       4.21300000       0.00000000
        26     1      1.7       6.31950000       6.31950000       0.00000000
        27     1      1.7       4.21300000       6.31950000       2.10650000
        28     1      1.7       6.31950000       4.21300000       2.10650000
        29     2     -1.7       6.31950000       4.21300000       0.00000000
        30     2     -1.7       4.21300000       6.31950000       0.00000000
        31     2     -1.7       4.21300000       4.21300000       2.10650000
        32     2     -1.7       6.31950000       6.31950000       2.10650000
        33     1      1.7       0.00000000       8.42600000       0.00000000
        34     1      1.7       2.10650000      10.53250000       0.00000000
        35     1      1.7       0.00000000      10.53250000       2.10650000
        36     1      1.7       2.10650000       8.42600000       2.10650000
        37     2     -1.7       2.10650000       8.42600000       0.00000000
        38     2     -1.7       0.00000000      10.53250000       0.00000000
        39     2     -1.7       0.00000000       8.42600000       2.10650000
        40     2     -1.7       2.10650000      10.53250000       2.10650000
        41     1      1.7       4.21300000       8.42600000       0.00000000
        42     1      1.7       6.31950000      10.53250000       0.00000000
        43     1      1.7       4.21300000      10.53250000       2.10650000
        44     1      1.7       6.31950000       8.42600000       2.10650000
        45     2     -1.7       6.31950000       8.42600000       0.00000000
        46     2     -1.7       4.21300000      10.53250000       0.00000000
        47     2     -1.7       4.21300000       8.42600000       2.10650000
        48     2     -1.7       6.31950000      10.53250000       2.10650000
        49     1      1.7       0.00000000       0.00000000       4.21300000
        50     1      1.7       2.10650000       2.10650000       4.21300000
        51     1      1.7       0.00000000       2.10650000       6.31950000
        52     1      1.7       2.10650000       0.00000000       6.31950000
        53     2     -1.7       2.10650000       0.00000000       4.21300000
        54     2     -1.7       0.00000000       2.10650000       4.21300000
        55     2     -1.7       0.00000000       0.00000000       6.31950000
        56     2     -1.7       2.10650000       2.10650000       6.31950000
        57     1      1.7       4.21300000       0.00000000       4.21300000
        58     1      1.7       6.31950000       2.10650000       4.21300000
        59     1      1.7       4.21300000       2.10650000       6.31950000
        60     1      1.7       6.31950000       0.00000000       6.31950000
        61     2     -1.7       6.31950000       0.00000000       4.21300000
        62     2     -1.7       4.21300000       2.10650000       4.21300000
        63     2     -1.7       4.21300000       0.00000000       6.31950000
        64     2     -1.7       6.31950000       2.10650000       6.31950000
        65     1      1.7       0.00000000       4.21300000       4.21300000
        66     1      1.7       2.10650000       6.31950000       4.21300000
        67     1      1.7       0.00000000       6.31950000       6.31950000
        68     1      1.7       2.10650000       4.21300000       6.31950000
        69     2     -1.7       2.10650000       4.21300000       4.21300000
        70     2     -1.7       0.00000000       6.31950000       4.21300000
        71     2     -1.7       0.00000000       4.21300000       6.31950000
        72     2     -1.7       2.10650000       6.31950000       6.31950000
        73     1      1.7       4.21300000       4.21300000       4.21300000
        74     1      1.7       6.31950000       6.31950000       4.21300000
        75     1      1.7       4.21300000       6.31950000       6.31950000
        76     1      1.7       6.31950000       4.21300000       6.31950000
        77     2     -1.7       6.31950000       4.21300000       4.21300000
        78     2     -1.7       4.21300000       6.31950000       4.21300000
        79     2     -1.7       4.21300000       4.21300000       6.31950000
        80     2     -1.7       6.31950000       6.31950000       6.31950000
        81     1      1.7       0.00000000       8.42600000       4.21300000
        82     1      1.7       2.10650000      10.53250000       4.21300000
        83     1      1.7       0.00000000      10.53250000       6.31950000
        84     1      1.7       2.10650000       8.42600000       6.31950000
        85     2     -1.7       2.10650000       8.42600000       4.21300000
        86     2     -1.7       0.00000000      10.53250000       4.21300000
        87     2     -1.7       0.00000000       8.42600000       6.31950000
        88     2     -1.7       2.10650000      10.53250000       6.31950000
        89     1      1.7       4.21300000       8.42600000       4.21300000
        90     1      1.7       6.31950000      10.53250000       4.21300000
        91     1      1.7       4.21300000      10.53250000       6.31950000
        92     1      1.7       6.31950000       8.42600000       6.31950000
        93     2     -1.7       6.31950000       8.42600000       4.21300000
        94     2     -1.7       4.21300000      10.53250000       4.21300000
        95     2     -1.7       4.21300000       8.42600000       6.31950000
        96     2     -1.7       6.31950000      10.53250000       6.31950000
        97     1      1.7       0.00000000       0.00000000       8.42600000
        98     1      1.7       2.10650000       2.10650000       8.42600000
        99     1      1.7       0.00000000       2.10650000      10.53250000
       100     1      1.7       2.10650000       0.00000000      10.53250000
       101     2     -1.7       2.10650000       0.00000000       8.42600000
       102     2     -1.7       0.00000000       2.10650000       8.42600000
       103     2     -1.7       0.00000000       0.00000000      10.53250000
       104     2     -1.7       2.10650000       2.10650000      10.53250000
       105     1      1.7       4.21300000       0.00000000       8.42600000
       106     1      1.7       6.31950000       2.10650000       8.42600000
       107     1      1.7       4.21300000       2.10650000      10.53250000
       108     1      1.7       6.31950000       0.00000000      10.53250000
       109     2     -1.7       6.31950000       0.00000000       8.42600000
       110     2     -1.7       4.21300000       2.10650000       8.42600000
       111     2     -1.7       4.21300000       0.00000000      10.53250000
       112     2     -1.7       6.31950000       2.10650000      10.53250000
       113     1      1.7       0.00000000       4.21300000       8.42600000
       114     1      1.7       2.10650000       6.31950000       8.42600000
       115     1      1.7       0.00000000       6.31950000      10.53250000
       116     1      1.7       2.10650000       4.21300000      10.53250000
       117     2     -1.7       2.10650000       4.21300000       8.42600000
       118     2     -1.7       0.00000000       6.31950000       8.42600000
       119     2     -1.7       0.00000000       4.21300000      10.53250000
       120     2     -1.7       2.10650000       6.31950000      10.53250000
       121     1      1.7       4.21300000       4.21300000       8.42600000
       122     1      1.7       6.31950000       6.31950000       8.42600000
       123     1      1.7       4.21300000       6.31950000      10.53250000
       124     1      1.7       6.31950000       4.21300000      10.53250000
       125     2     -1.7       6.31950000       4.21300000       8.42600000
       126     2     -1.7       4.21300000       6.31950000       8.42600000
       127     2     -1.7       4.21300000       4.21300000      10.53250000
       128     2     -1.7       6.31950000       6.31950000      10.53250000
       129     1      1.7       0.00000000       8.42600000       8.42600000
       130     1      1.7       2.10650000      10.53250000       8.42600000
       131     1      1.7       0.00000000      10.53250000      10.53250000
       132     1      1.7       2.10650000       8.42600000      10.53250000
       133     2     -1.7       2.10650000       8.42600000       8.42600000
       134     2     -1.7       0.00000000      10.53250000       8.42600000
       135     2     -1.7       0.00000000       8.42600000      10.53250000
       136     2     -1.7       2.10650000      10.53250000      10.53250000
       137     1      1.7       4.21300000       8.42600000       8.42600000
       138     1      1.7       6.31950000      10.53250000       8.42600000
       139     1      1.7       4.21300000      10.53250000      10.53250000
       140     1      1.7       6.31950000       8.42600000      10.53250000
       141     2     -1.7       6.31950000       8.42600000       8.42600000
       142     2     -1.7       4.21300000      10.53250000       8.42600000
       143     2     -1.7       4.21300000       8.42600000      10.53250000
       144     2     -1.7       6.31950000      10.53250000      10.53250000
       145     1      1.7       0.00000000       0.00000000      12.63900000
       146     1      1.7       2.10650000       2.10650000      12.63900000
       147     1      1.7       0.00000000       2.10650000      14.74550000
       148     1      1.7       2.10650000       0.00000000      14.74550000
       149     2     -1.7       2.10650000       0.00000000      12.63900000
       150     2     -1.7       0.00000000       2.10650000      12.63900000
       151     2     -1.7       0.00000000       0.00000000      14.74550000
       152     2     -1.7       2.10650000       2.10650000      14.74550000
       153     1      1.7       4.21300000       0.00000000      12.63900000
       154     1      1.7       6.31950000       2.10650000      12.63900000
       155     1      1.7       4.21300000       2.10650000      14.74550000
       156     1      1.7       6.31950000       0.00000000      14.74550000
       157     2     -1.7       6.31950000       0.00000000      12.63900000
       158     2     -1.7       4.21300000       2.10650000      12.63900000
       159     2     -1.7       4.21300000       0.00000000      14.74550000
       160     2     -1.7       6.31950000       2.10650000      14.74550000
       161     1      1.7       0.00000000       4.21300000      12.63900000
       162     1      1.7       2.10650000       6.31950000      12.63900000
       163     1      1.7       0.00000000       6.31950000      14.74550000
       164     1      1.7       2.10650000       4.21300000      14.74550000
       165     2     -1.7       2.10650000       4.21300000      12.63900000
       166     2     -1.7       0.00000000       6.31950000      12.63900000
       167     2     -1.7       0.00000000       4.21300000      14.74550000
       168     2     -1.7       2.10650000       6.31950000      14.74550000
       169     1      1.7       4.21300000       4.21300000      12.63900000
       170     1      1.7       6.31950000       6.31950000      12.63900000
       171     1      1.7       4.21300000       6.31950000      14.74550000
       172     1      1.7       6.31950000       4.21300000      14.74550000
       173     2     -1.7       6.31950000       4.21300000      12.63900000
       174     2     -1.7       4.21300000       6.31950000      12.63900000
       175     2     -1.7       4.21300000       4.21300000      14.74550000
       176     2     -1.7       6.31950000       6.31950000      14.74550000
       177     1      1.7       0.00000000       8.42600000      12.63900000
       178     1      1.7       2.10650000      10.53250000      12.63900000
       179     1      1.7       0.00000000      10.53250000      14.74550000
       180     1      1.7       2.10650000       8.42600000      14.74550000
       181     2     -1.7       2.10650000       8.42600000      12.63900000
       182     2     -1.7       0.00000000      10.53250000      12.63900000
       183     2     -1.7       0.00000000       8.42600000      14.74550000
       184     2     -1.7       2.10650000      10.53250000      14.74550000
       185     1      1.7       4.21300000       8.42600000      12.63900000
       186     1      1.7       6.31950000      10.53250000      12.63900000
       187     1      1.7       4.21300000      10.53250000      14.74550000
       188     1      1.7       6.31950000       8.42600000      14.74550000
       189     2     -1.7       6.31950000       8.42600000      12.63900000
       190     2     -1.7       4.21300000      10.53250000      12.63900000
       191     2     -1.7       4.21300000       8.42600000      14.74550000
       192     2     -1.7       6.31950000      10.53250000      14.74550000
